#%Module1.0
module-whatis	"HOOMD-blue is a general-purpose particle simulation toolkit, implementing molecular 
		 dynamics and hard particle Monte Carlo optimized for fast execution on both GPUs and 
		 CPUs. As a Python package, HOOMD-blue gives you the flexibility to create custom 
		 initialization routines, control simulation parameters, perform in situ analysis, use 
		 interactive notebooks, and more.
		 version: 3.0.0 with DCU2
		 website: http://glotzerlab.engin.umich.edu/hoomd-blue/
"
module load 		compiler/devtoolset/7.3.1
module load 		compiler/dtk/22.04.2
conflict 	Hoomd-blue
set             APPS_HOME               /public/software/apps/hoomd-blue-DCU2/3.0.0/conda-env
prepend-path    PATH                    ${APPS_HOME}/bin
